1
Lattice="20.0 0.0 0.0 0.0 20.0 0.0 0.0 0.0 20.0" Properties=species:S:1:pos:R:3:map_shift:I:3:n_neighb:I:1:gap_force:R:3:dft_force:R:3 config_type=isolated_atom gap_energy=-157.7272532 gap_virial="0.0 0.0 0.0 0.0 0.0 0.0 0.0 0.0 0.0" dft_energy=-158.54496821 cutoff=5.5 nneightol=1.2 pbc="T T T"
Si      10.00000000      10.00000000      10.00000000       -1       -1       -1        0       0.00000000       0.00000000       0.00000000       0.00000000       0.00000000       0.00000000
1
Lattice="2.835507 0.0 0.0 -1.237404 2.349267 0.0 -0.080202 -0.087109 2.447022" Properties=species:S:1:pos:R:3:dft_force:R:3 config_type=sh dft_energy=-162.78192 dft_virial="-0.904828 -0.109712 0.17244 -0.109712 -0.77309 0.253997 0.17244 0.253997 0.138001" cutoff=-1.0 nneightol=1.2 pbc="T T T"
Si       0.00000000       0.00000000       0.00000000       0.00000000       0.00000000       0.00000000
1
Lattice="2.870026 0.0 0.0 -1.060744 2.535586 0.0 -0.025523 -0.169392 2.473255" Properties=species:S:1:pos:R:3:dft_force:R:3 config_type=sh dft_energy=-162.666465 dft_virial="-1.51835 -0.00250994 -0.0128037 -0.00250994 -1.42032 0.430646 -0.0128037 0.430646 -0.305557" cutoff=-1.0 nneightol=1.2 pbc="T T T"
Si       0.00000000       0.00000000       0.00000000       0.00000000       0.00000000       0.00000000
1
Lattice="2.726695 0.0 0.0 -0.783866 2.372258 0.0 -0.24923 -0.100584 2.528603" Properties=species:S:1:pos:R:3:dft_force:R:3 config_type=sh dft_energy=-162.748051 dft_virial="-0.642258 -0.245457 0.377939 -0.245457 0.0282488 0.138726 0.377939 0.138726 -0.455127" cutoff=-1.0 nneightol=1.2 pbc="T T T"
Si       0.00000000       0.00000000       0.00000000       0.00000000       0.00000000       0.00000000
1
Lattice="2.780683 0.0 0.0 -0.860945 2.313895 0.0 0.033733 -0.343274 2.515576" Properties=species:S:1:pos:R:3:dft_force:R:3 config_type=sh dft_energy=-162.699367 dft_virial="-0.737726 -0.316521 -0.200265 -0.316521 0.276168 0.709169 -0.200265 0.709169 -0.250948" cutoff=-1.0 nneightol=1.2 pbc="T T T"
Si       0.00000000       0.00000000       0.00000000       0.00000000       0.00000000       0.00000000
1
Lattice="2.760424 0.0 0.0 -1.222788 2.177662 0.0 -0.337363 -0.402422 2.545846" Properties=species:S:1:pos:R:3:dft_force:R:3 config_type=sh dft_energy=-162.704259 dft_virial="0.0105322 -0.251142 0.386667 -0.251142 0.233376 0.592384 0.386667 0.592384 -0.405374" cutoff=-1.0 nneightol=1.2 pbc="T T T"
Si       0.00000000       0.00000000       0.00000000       0.00000000       0.00000000       0.00000000
1
Lattice="2.928066 0.0 0.0 -1.380244 2.181175 0.0 -0.180608 -0.276321 2.545662" Properties=species:S:1:pos:R:3:dft_force:R:3 config_type=sh dft_energy=-162.746046 dft_virial="-0.490427 -0.0861054 0.253438 -0.0861054 -0.429788 0.650441 0.253438 0.650441 -0.576057" cutoff=-1.0 nneightol=1.2 pbc="T T T"
Si       0.00000000       0.00000000       0.00000000       0.00000000       0.00000000       0.00000000
1
Lattice="2.919686 0.0 0.0 -1.28945 2.136616 0.0 -0.123473 -0.147916 2.397894" Properties=species:S:1:pos:R:3:dft_force:R:3 config_type=sh dft_energy=-162.765282 dft_virial="-0.13973 -0.320631 0.139358 -0.320631 0.407682 0.390799 0.139358 0.390799 1.0178" cutoff=-1.0 nneightol=1.2 pbc="T T T"
Si       0.00000000       0.00000000       0.00000000       0.00000000       0.00000000       0.00000000
1
Lattice="2.76585 0.0 0.0 -1.448181 2.280093 0.0 -0.22051 -0.26494 2.485558" Properties=species:S:1:pos:R:3:dft_force:R:3 config_type=sh dft_energy=-162.758977 dft_virial="-0.465101 0.123959 0.463768 0.123959 -0.307521 0.657752 0.463768 0.657752 -0.0883257" cutoff=-1.0 nneightol=1.2 pbc="T T T"
Si       0.00000000       0.00000000       0.00000000       0.00000000       0.00000000       0.00000000
1
Lattice="2.583479 0.0 0.0 -1.057598 2.355295 0.0 -0.478339 -0.085244 2.352626" Properties=species:S:1:pos:R:3:dft_force:R:3 config_type=sh dft_energy=-162.684201 dft_virial="0.401268 -0.0146435 0.435379 -0.0146435 0.0880212 -0.00807381 0.435379 -0.00807381 1.43645" cutoff=-1.0 nneightol=1.2 pbc="T T T"
Si       0.00000000       0.00000000       0.00000000       0.00000000       0.00000000       0.00000000
